<?xml version="1.0" encoding="UTF-8"?>

<!-- generated on 11/27/2017 11:02:24 AM by SUMO gui Version 0.30.0
<?xml version="1.0" encoding="UTF-8"?>

<configuration xmlns:xsi="http://www.w3.org/2001/XMLSchema-instance" xsi:noNamespaceSchemaLocation="http://sumo.dlr.de/xsd/sumoConfiguration.xsd">

    <input>
        <net-file value="data/highway.net.xml"/>
        <route-files value="data/highway.rou.xml"/>
    </input>

    <output>
        <tripinfo-output value="tripinfo.xml"/>
    </output>

    <time>
        <begin value="0"/>
        <end value="36050000"/>
        <step-length value="0.1"/>
    </time>

    <processing>
        <collision.action value="warn"/>
        <collision.check-junctions value="true"/>
        <time-to-teleport value="-1"/>
    </processing>

    <report>
        <no-step-log value="true"/>
    </report>

    <traci_server>
        <remote-port value="64166"/>
    </traci_server>

    <gui_only>
        <quit-on-end value="true"/>
        <start value="true"/>
    </gui_only>

</configuration>
-->

<tripinfos xmlns:xsi="http://www.w3.org/2001/XMLSchema-instance" xsi:noNamespaceSchemaLocation="http://sumo.dlr.de/xsd/tripinfo_file.xsd">
    <tripinfo id="AUTO" depart="0.00" departLane="1to2_0" departPos="5.10" departSpeed="0.00" departDelay="0.00" arrival="48.70" arrivalLane="2to3_0" arrivalPos="250.00" arrivalSpeed="12.00" duration="48.70" routeLength="495.00" waitSteps="1" timeLoss="18.93" rerouteNo="0" devices="tripinfo_AUTO" vType="self_car" speedFactor="10.00" vaporized=""/>
</tripinfos>
